38
#step 0
NE	   0.94236	  -2.51304	   6.36352
NE	   8.41127	  -7.37407	  -5.01106
NE	   5.80840	  -6.28191	   8.08243
NE	   7.40850	  -0.30875	   3.44732
NE	   1.30084	  -3.04289	   1.93877
NE	   4.60596	   4.96534	   8.22084
NE	   7.76961	  -3.39999	   2.19961
NE	  -2.58493	  -8.51211	  -4.39041
NE	   1.71438	   4.03404	  -6.92992
NE	  -7.31490	  -2.67749	   1.94212
NE	   5.41928	   4.90071	   0.08583
NE	   3.94243	  -8.45377	  -6.12051
NE	   1.00437	  -8.04149	   1.55465
NE	  -3.53478	   4.98667	  -3.87208
NE	  -6.54122	   4.05267	   5.78781
NE	  -3.70655	  -2.62929	  -4.79042
NE	   3.86600	   7.33260	  -0.05493
NE	   4.84819	   4.59052	  -4.58594
NE	  -4.06909	   6.14686	   5.74847
NE	   2.57518	   3.12281	   5.15496
NE	  -0.38438	  -3.96234	  -7.48147
NE	   6.22512	   5.30663	  -6.36244
NE	   1.77643	   0.65037	   4.88665
NE	  -3.81760	   7.12406	  -2.45926
NE	  -7.90553	   6.58486	  -0.23097
NE	   6.20462	   6.40386	   6.44973
NE	   1.55948	  -3.57574	  -4.01954
NE	  -2.15348	  -4.84731	   4.77641
NE	  -6.81457	   0.22749	  -6.26746
NE	  -7.24235	   4.76613	   1.23449
NE	  -5.99859	   4.64342	  -7.84382
NE	  -5.55697	  -9.19222	  -4.76396
NE	  -7.56937	   0.81273	   4.19149
NE	   8.07201	   2.42803	  -7.14576
NE	   4.12598	  -2.57754	   6.49039
NE	  -2.17421	   0.66004	   2.64623
NE	  -4.35158	   1.85083	  -1.71643
NE	  -5.86032	  -8.20070	   2.84468
