55
#step 10000
A	   1.95011	   1.72489	   0.18185
A	  -1.86413	  -0.09014	  -2.86718
B	   1.22217	  -2.21689	  -1.78986
B	  -0.82968	   0.79400	   2.69681
B	  -3.03978	   1.41984	  -1.46595
B	   1.44592	   1.52581	  -1.80263
B	   1.26388	  -1.72260	  -3.03756
B	   0.44724	   2.73596	   2.28700
B	  -0.85493	  -2.03468	  -1.99950
B	  -1.90797	  -1.36749	   0.98780
B	  -0.52957	  -2.59941	   0.66364
B	  -1.27152	  -0.15870	   1.51459
B	  -2.15741	   0.70508	  -1.19244
B	   1.83952	   1.18012	  -0.78944
B	  -0.08190	  -1.92046	   1.65651
B	  -2.54063	   0.64515	  -2.27677
B	   2.10180	  -2.07837	   2.22573
B	   1.85206	   0.79663	   0.90798
B	   1.46759	   2.21148	  -0.72111
B	   2.68249	   0.87101	   0.02315
B	  -2.80038	  -0.55693	  -2.42540
B	   2.61482	  -1.29223	   1.29203
B	  -0.78394	   0.92110	   1.52526
B	   1.13421	   1.00858	   0.12006
B	   2.06980	  -1.63412	   0.32507
B	   3.09809	   2.36455	   0.54258
B	  -1.10390	   1.82009	   0.70586
B	  -0.12769	   2.18252	   1.39251
B	  -2.87473	  -1.83102	   0.49793
B	  -1.26201	  -2.06119	   1.89834
B	   1.48258	  -1.09353	   2.33632
B	   0.25564	   0.44152	  -2.40451
B	   1.14380	   1.94009	   1.02624
B	   2.89882	   1.90985	  -0.49049
B	   0.63517	  -0.48933	  -3.20566
B	   1.88110	  -2.43491	   1.15750
B	  -1.59355	  -1.07696	   2.25582
B	   2.22046	   1.91556	   1.18626
B	  -3.10773	  -0.27488	  -1.30576
B	  -3.56385	   0.30119	  -2.20828
B	  -1.52773	   0.71823	   0.62900
B	   0.72330	   1.32592	  -0.99061
B	  -1.66115	   1.03605	  -2.85803
B	   1.01871	  -3.24133	   1.24339
B	   1.82087	  -0.38469	   1.28801
B	  -1.20313	   2.13541	   1.80403
B	   0.66106	   2.43196	  -1.58080
B	  -0.41634	   1.77397	   2.45011
B	  -1.25624	   0.62361	  -1.88682
B	  -2.01184	  -0.19499	  -1.77304
B	  -1.61577	  -2.46383	   0.79126
B	   0.95997	  -2.31310	   2.02184
B	  -0.80751	  -0.33329	  -2.61138
B	   0.63082	  -2.20380	   0.80207
B	   1.27302	  -1.39131	   1.24669
